file 1822 1683254952                                            
version 3
run General-0-20230504-23:46:13-19560
attr configname General
attr datetime 20230504-23:46:13
attr datetimef 20230504-234613
attr experiment General
attr inifile omnetpp.ini
attr iterationvars ""
attr iterationvarsd ""
attr iterationvarsf ""
attr measurement ""
attr network Network
attr processid 19560
attr repetition 0
attr replication #0
attr resultdir results
attr runnumber 0
attr seedset 0
config network Network
config sim-time-limit 200s
config Network.nodeTx.gen.generationInterval exponential(0.1)
config Network.nodeTx.gen.packetByteSize 12500
config Network.queue.bufferSize 200
config Network.nodeRx.queue.bufferSize 200
config Network.nodeTx.queue.buffersize 2000000

vector 0 Network.nodeTx.queue "" ETV
0	730 128 2 15 0.079587450457 0.379787450457 6 1 1 6 6
vector 1 Network.nodeRx.sink Delay ETV
0	897 175 18 39 0.39513656511 0.779787450457 8 1 2 9 11
1	1072 62 19 31 0.479787450457 0.679787450457 2 0.4002 0.510343961152 0.910543961152 0.42061099868431
0	1134 21 42 42 0.84719394705 0.84719394705 1 1 1 1 1
0	1155 22 44 44 0.868573833052 0.868573833052 1 2 2 2 4
1	1177 35 45 45 0.879787450457 0.879787450457 1 0.584750885347 0.584750885347 0.584750885347 0.3419335979141
0	1212 22 48 48 0.968573833052 0.968573833052 1 3 3 3 9
0	1234 65 50 58 0.979787450457 1.090195201137 3 1 1 3 3
1	1299 34 55 55 1.079787450457 1.079787450457 1 0.59879046414 0.59879046414 0.59879046414 0.358550019945
0	1333 21 60 60 1.13519035247 1.13519035247 1 3 3 3 9
0	1354 44 62 65 1.179787450457 1.187895843776 2 1 1 2 2
vector 2 Network.nodeTx.queue "" ETV
0	1435 237 67 100 1.23519035247 1.75554486602 11 1 5 27 97
1	1672 105 68 97 1.279787450457 1.679787450457 3 0.706468150993 0.832593503407 2.250375271805 1.6982762525888
2	1777 44 80 82 1.397776509902 1.433092423816 2 1 1 2 2

