file 7973216 1683156433                                         
version 3
run General-0-20230503-20:26:14-63783
attr configname General
attr datetime 20230503-20:26:14
attr datetimef 20230503-202614
attr experiment General
attr inifile omnetpp.ini
attr iterationvars ""
attr iterationvarsd ""
attr iterationvarsf ""
attr measurement ""
attr network Network
attr processid 63783
attr repetition 0
attr replication #0
attr resultdir results
attr runnumber 0
attr seedset 0
config network Network
config sim-time-limit 200s
config Network.gen.generationInterval exponential(0.001)
config Network.queue.serviceTime exponential(0.001)

vector 0 Network.sink Delay ETV
0	599 54 4 8 0.000795874505 0.002051805263 2 0 0.00035737037 0.00035737037 1.2771358135394e-07
0	653 100 13 27 0.003554039105 0.008422707796 4 0 6.1152875e-05 6.1152875e-05 3.7396741207656e-09
0	753 1263054 31 131490 0.008998226993 32.766097995309 32768 0 0.134111631235 1952.6284004705 149.7307524805
0	1263807 1301096 131492 262811 32.766142134516 65.423878598476 32768 0 0.221020690311 2687.1412658816 302.70368248205
0	2564903 1300710 262813 394064 65.424344788416 98.531924091397 32768 0 0.300331321051 4202.0505406084 720.78286283995
0	3865613 1332604 394066 525539 98.532687998105 131.567507818105 32768 0 0.255925403643 2635.502751317 279.24334392154
0	5198217 1335853 525543 656356 131.567902540126 164.304582143467 32768 0 0.252155838191 3355.8180584763 462.92763749437
0	6534070 1332103 656358 787874 164.305259966725 197.329238727061 32768 0 0.17660250145 1547.6930136024 108.03922177346
0	7866173 107042 787882 798280 197.330675780583 199.999008411653 2625 0.087355431151 0.206897725172 396.16516092306 61.601746645549

